C6H14
    20
   0.0000000   0.0000000   0.0000000   1.2570000   0.8890000   0.0000000
   2.5150000   0.0000000   0.0000000   3.7720000   0.8890000   0.0000000
   5.0300000   0.0000000   0.0000000   6.2870000   0.8890000   0.0000000
   0.2970000  -1.0490000   0.0000000  -0.5930000   0.2100000  -0.8900000
  -0.5930000   0.2100000   0.8900000   1.2570000   1.5180000   0.8900000
   1.2570000   1.5180000  -0.8900000   2.5150000  -0.6290000  -0.8900000
   2.5150000  -0.6290000   0.8900000   3.7720000   1.5180000   0.8900000
   3.7720000   1.5180000  -0.8900000   5.0300000  -0.6290000  -0.8900000
   5.0300000  -0.6290000   0.8900000   5.9900000   1.9380000   0.0000000
   6.8800000   0.6790000  -0.8900000   6.8800000   0.6790000   0.8900000
