C2H6
     8
   0.0000000   0.0000000   0.0000000   1.2570000   0.8890000   0.0000000
   0.2970000  -1.0490000   0.0000000  -0.5930000   0.2100000  -0.8900000
  -0.5930000   0.2100000   0.8900000   0.9610000   1.9380000   0.0000000
   1.8510000   0.6790000  -0.8900000   1.8510000   0.6790000   0.8900000
