
   18  0.0000000e+00
  -3.0201568   1.0618721   0.3624355  -2.0565536   0.0337101   0.2930180
  -0.9535840   0.4122475  -0.6943969   0.0592950  -0.5325186  -0.8471574
   0.9790461  -0.8609109   0.1294390   2.0010305   0.1269473   0.5460586
   2.8138459   0.5061003  -0.5230740  -3.4132915   1.1298531  -0.5593857
  -2.5211326  -0.9443519   0.0452387  -1.6755604  -0.0854759   1.3289984
  -1.4787304   0.4761508  -1.6911987  -0.6799682   1.4358444  -0.4600545
  -0.0741786  -1.2751860  -1.5355495   1.5676806  -1.7512849  -0.2389070
   0.4648995  -1.2689923   1.0342948   1.6372198   1.0684559   0.9807655
   2.6766346  -0.3317070   1.2988981   3.6735040   0.7992460  -0.1275179
