
   22  0.0000000e+00
   0.0661621   1.4870624   0.5458201  -0.5522685   1.2034607   1.3938715
  -0.1526472   0.3146653   1.8755148  -1.5639986   0.9989617   1.0461530
  -0.6035845   2.3476894   2.3876417  -1.6773076   2.8650597   2.6507825
   0.5162233   2.7897897   2.9563570   0.4051314   3.5842189   3.5710135
   1.8841249   2.2862019   2.7970558   2.0019022   1.8658017   1.7998584
   2.1215999   1.1802159   3.8372955   1.4120808   0.3652554   3.6940065
   3.1338623   0.7869422   3.7429440   1.9942500   1.5903588   4.8407495
   2.9110354   3.4311494   2.9608843   2.6418859   4.4128889   3.6448973
   4.1120794   3.3550242   2.3769201   4.7091150   4.1499674   2.5520715
   4.6357384   2.2821474   1.5299326   3.9718679   2.1041997   0.6821027
   4.7476065   1.3620146   2.1062072   5.6161410   2.5689244   1.1449206
