
   14  0.0000000e+00
  -1.3442449  -1.3055814   0.1895260  -1.1992884  -0.1945858  -0.6410519
  -0.1380418   0.7074367  -0.0836632  -0.4644639   1.1457133   1.1836094
   1.2373177   0.0763078  -0.1354458   1.3276815  -1.0307106   0.7137877
  -2.0740506  -1.1597225   0.8183212  -2.1354004   0.4109887  -0.7020408
  -0.9675373  -0.4989517  -1.6681249  -0.0716270   1.6228400  -0.7292493
   0.3626344   1.3133481   1.7300219   2.0024812   0.7983211   0.2089687
   1.4740229  -0.2342912  -1.1712006   1.9905164  -1.6511126   0.2865417
