%VERSION  VERSION_STAMP = V0001.000  DATE = 05/26/26  19:27:21
%FLAG TITLE
%FORMAT(20a4)

%FLAG POINTERS
%FORMAT(10I8)
      22       7      12       9      25      11      39      19       0       0
      99       3       9      11      19       7      11      51       1       0
       0       0       0       0       0       0       0       0      10       0
       0
%FLAG ATOM_NAME
%FORMAT(20a4)
H1  CH3 H2  H3  C   O   N   H   CA  HA  CB  HB1 HB2 HB3 C   O   N   H   C   H1  
H2  H3  
%FLAG CHARGE
%FORMAT(5E16.8)
  2.04636429E+00 -6.67300626E+00  2.04636429E+00  2.04636429E+00  1.08823576E+01
 -1.03484442E+01 -7.57501011E+00  4.95464337E+00  6.14091510E-01  1.49969529E+00
 -3.32556975E+00  1.09880469E+00  1.09880469E+00  1.09880469E+00  1.08841798E+01
 -1.03484442E+01 -7.57501011E+00  4.95464337E+00 -2.71512270E+00  1.77849648E+00
  1.77849648E+00  1.77849648E+00
%FLAG ATOMIC_NUMBER
%FORMAT(10I8)
       1       6       1       1       6       8       7       1       6       1
       6       1       1       1       6       8       7       1       6       1
       1       1
%FLAG MASS
%FORMAT(5E16.8)
  1.00794700E+00  1.20107800E+01  1.00794700E+00  1.00794700E+00  1.20107800E+01
  1.59994300E+01  1.40067200E+01  1.00794700E+00  1.20107800E+01  1.00794700E+00
  1.20107800E+01  1.00794700E+00  1.00794700E+00  1.00794700E+00  1.20107800E+01
  1.59994300E+01  1.40067200E+01  1.00794700E+00  1.20107800E+01  1.00794700E+00
  1.00794700E+00  1.00794700E+00
%FLAG ATOM_TYPE_INDEX
%FORMAT(10I8)
       1       2       1       1       3       4       5       6       2       7
       2       1       1       1       3       4       5       6       2       7
       7       7
%FLAG NUMBER_EXCLUDED_ATOMS
%FORMAT(10I8)
       6       7       4       3       7       3      10       4      10       7
       6       3       2       1       7       3       5       4       3       2
       1       1
%FLAG NONBONDED_PARM_INDEX
%FORMAT(10I8)
       1       2       4       7      11      16      22       2       3       5
       8      12      17      23       4       5       6       9      13      18
      24       7       8       9      10      14      19      25      11      12
      13      14      15      20      26      16      17      18      19      20
      21      27      22      23      24      25      26      27      28
%FLAG RESIDUE_LABEL
%FORMAT(20a4)
ACE ALA NME 
%FLAG RESIDUE_POINTER
%FORMAT(10I8)
       1       7      17
%FLAG BOND_FORCE_CONSTANT
%FORMAT(5E16.8)
  3.17000000E+02  5.70000000E+02  3.40000000E+02  4.90000000E+02  3.10000000E+02
  3.37000000E+02  4.34000000E+02
%FLAG BOND_EQUIL_VALUE
%FORMAT(5E16.8)
  1.52200000E+00  1.22900000E+00  1.09000000E+00  1.33500000E+00  1.52600000E+00
  1.44900000E+00  1.01000000E+00
%FLAG ANGLE_FORCE_CONSTANT
%FORMAT(5E16.8)
  3.50000000E+01  5.00000000E+01  8.00000000E+01  7.00000000E+01  5.00000000E+01
  5.00000000E+01  8.00000000E+01  8.00000000E+01  6.30000000E+01  5.00000000E+01
  6.30000000E+01
%FLAG ANGLE_EQUIL_VALUE
%FORMAT(5E16.8)
  1.91113553E+00  1.91113553E+00  2.10137642E+00  2.03505391E+00  2.09439510E+00
  2.12755636E+00  2.14500965E+00  1.91462619E+00  1.92160751E+00  2.06018665E+00
  1.93906080E+00
%FLAG DIHEDRAL_FORCE_CONSTANT
%FORMAT(5E16.8)
  8.00000000E-02  1.80000000E+00  2.00000000E+00  2.70000000E-01  1.58000000E+00
  4.50000000E-01  2.00000000E-01  2.00000000E-01  1.05000000E+01  1.10000000E+00
  8.00000000E-01  2.50000000E+00  2.50000000E+00  8.00000000E-01  8.00000000E-01
  8.00000000E-01  4.20000000E-01  2.50000000E+00  2.50000000E+00  1.55555556E-01
  1.55555556E-01  1.55555556E-01  5.50000000E-01  2.50000000E+00  2.50000000E+00
  1.55555556E-01  1.55555556E-01  1.55555556E-01  8.00000000E-01  4.00000000E-01
  1.55555556E-01  1.55555556E-01  1.55555556E-01  2.50000000E+00  2.50000000E+00
  0.00000000E+00  0.00000000E+00  0.00000000E+00  0.00000000E+00  0.00000000E+00
  0.00000000E+00  0.00000000E+00  0.00000000E+00  0.00000000E+00  0.00000000E+00
  0.00000000E+00  0.00000000E+00  0.00000000E+00  0.00000000E+00  0.00000000E+00
  0.00000000E+00
%FLAG DIHEDRAL_PERIODICITY
%FORMAT(5E16.8)
  3.00000000E+00  2.00000000E+00  1.00000000E+00  2.00000000E+00  2.00000000E+00
  1.00000000E+00  2.00000000E+00  1.00000000E+00  2.00000000E+00  2.00000000E+00
  1.00000000E+00  2.00000000E+00  2.00000000E+00  1.00000000E+00  1.00000000E+00
  3.00000000E+00  3.00000000E+00  2.00000000E+00  2.00000000E+00  3.00000000E+00
  3.00000000E+00  3.00000000E+00  3.00000000E+00  2.00000000E+00  2.00000000E+00
  3.00000000E+00  3.00000000E+00  3.00000000E+00  1.00000000E+00  3.00000000E+00
  3.00000000E+00  3.00000000E+00  3.00000000E+00  2.00000000E+00  2.00000000E+00
  1.00000000E+00  1.00000000E+00  1.00000000E+00  1.00000000E+00  1.00000000E+00
  1.00000000E+00  1.00000000E+00  1.00000000E+00  1.00000000E+00  1.00000000E+00
  1.00000000E+00  1.00000000E+00  1.00000000E+00  1.00000000E+00  1.00000000E+00
  1.00000000E+00
%FLAG DIHEDRAL_PHASE
%FORMAT(5E16.8)
  3.14159265E+00  0.00000000E+00  0.00000000E+00  0.00000000E+00  3.14159265E+00
  3.14159265E+00  0.00000000E+00  0.00000000E+00  3.14159265E+00  3.14159265E+00
  0.00000000E+00  3.14159265E+00  3.14159265E+00  0.00000000E+00  0.00000000E+00
  0.00000000E+00  0.00000000E+00  3.14159265E+00  3.14159265E+00  0.00000000E+00
  0.00000000E+00  0.00000000E+00  3.14159265E+00  3.14159265E+00  3.14159265E+00
  0.00000000E+00  0.00000000E+00  0.00000000E+00  0.00000000E+00  0.00000000E+00
  0.00000000E+00  0.00000000E+00  0.00000000E+00  3.14159265E+00  3.14159265E+00
  0.00000000E+00  0.00000000E+00  0.00000000E+00  0.00000000E+00  0.00000000E+00
  0.00000000E+00  0.00000000E+00  0.00000000E+00  0.00000000E+00  0.00000000E+00
  0.00000000E+00  0.00000000E+00  0.00000000E+00  0.00000000E+00  0.00000000E+00
  0.00000000E+00
%FLAG SCEE_SCALE_FACTOR
%FORMAT(5E16.8)
  1.00000000E+00  1.00000000E+00  1.00000000E+00  1.00000000E+00  1.00000000E+00
  1.00000000E+00  1.00000000E+00  1.00000000E+00  1.00000000E+00  1.00000000E+00
  1.20000000E+00  1.20000000E+00  1.20000000E+00  1.20000000E+00  1.20000000E+00
  1.20000000E+00  1.20000000E+00  1.20000000E+00  1.20000000E+00  1.20000000E+00
  1.20000000E+00  1.20000000E+00  1.20000000E+00  1.20000000E+00  1.20000000E+00
  1.20000000E+00  1.20000000E+00  1.20000000E+00  1.20000000E+00  1.20000000E+00
  1.20000000E+00  1.20000000E+00  1.20000000E+00  1.20000000E+00  1.20000000E+00
  1.20000000E+00  1.20000000E+00  1.20000000E+00  1.20000000E+00  1.20000000E+00
  1.20000000E+00  1.20000000E+00  1.20000000E+00  1.20000000E+00  1.20000000E+00
  1.20000000E+00  1.20000000E+00  1.20000000E+00  1.20000000E+00  1.20000000E+00
  1.20000000E+00
%FLAG SCNB_SCALE_FACTOR
%FORMAT(5E16.8)
  1.00000000E+00  1.00000000E+00  1.00000000E+00  1.00000000E+00  1.00000000E+00
  1.00000000E+00  1.00000000E+00  1.00000000E+00  1.00000000E+00  1.00000000E+00
  2.00000000E+00  2.00000000E+00  2.00000000E+00  2.00000000E+00  2.00000000E+00
  2.00000000E+00  2.00000000E+00  2.00000000E+00  2.00000000E+00  2.00000000E+00
  2.00000000E+00  2.00000000E+00  2.00000000E+00  2.00000000E+00  2.00000000E+00
  2.00000000E+00  2.00000000E+00  2.00000000E+00  2.00000000E+00  2.00000000E+00
  2.00000000E+00  2.00000000E+00  2.00000000E+00  2.00000000E+00  2.00000000E+00
  2.00000000E+00  2.00000000E+00  2.00000000E+00  2.00000000E+00  2.00000000E+00
  2.00000000E+00  2.00000000E+00  2.00000000E+00  2.00000000E+00  2.00000000E+00
  2.00000000E+00  2.00000000E+00  2.00000000E+00  2.00000000E+00  2.00000000E+00
  2.00000000E+00
%FLAG SOLTY
%FORMAT(5E16.8)
  0.00000000E+00
%FLAG LENNARD_JONES_ACOEF
%FORMAT(5E16.8)
  7.51607703E+03  9.71708117E+04  1.04308023E+06  8.61541883E+04  9.24822270E+05
  8.19971662E+05  5.44261042E+04  6.47841731E+05  5.74393458E+05  3.79876399E+05
  8.96776989E+04  9.95480466E+05  8.82619071E+05  6.06829342E+05  9.44293233E+05
  1.07193646E+02  2.56678134E+03  2.27577561E+03  1.02595236E+03  2.12601181E+03
  1.39982777E-01  4.98586848E+03  6.78771368E+04  6.01816484E+04  3.69471530E+04
  6.20665997E+04  5.94667300E+01  3.25969625E+03
%FLAG LENNARD_JONES_BCOEF
%FORMAT(5E16.8)
  2.17257828E+01  1.26919150E+02  6.75612247E+02  1.12529845E+02  5.99015525E+02
  5.31102864E+02  1.11805549E+02  6.26720080E+02  5.55666448E+02  5.64885984E+02
  1.36131731E+02  7.36907417E+02  6.53361429E+02  6.77220874E+02  8.01323529E+02
  2.59456373E+00  2.06278363E+01  1.82891803E+01  1.53505284E+01  2.09604198E+01
  9.37598976E-02  1.76949863E+01  1.06076943E+02  9.40505980E+01  9.21192136E+01
  1.13252061E+02  1.93248820E+00  1.43076527E+01
%FLAG BONDS_INC_HYDROGEN
%FORMAT(10I8)
       3       0       3       3       6       3       3       9       3      24
      27       3      30      33       3      30      36       3      30      39
       3      21      18       7      54      57       3      54      60       3
      54      63       3      51      48       7
%FLAG BONDS_WITHOUT_HYDROGEN
%FORMAT(10I8)
      12       3       1      12      15       2      12      18       4      42
      24       1      42      45       2      24      30       5      24      18
       6      42      48       4      54      48       6
%FLAG ANGLES_INC_HYDROGEN
%FORMAT(10I8)
       0       3       6       1       0       3       9       1       0       3
      12       2       6       3       9       1       6       3      12       2
       9       3      12       2      12      18      21       5      18      24
      27       2      21      18      24      10      24      30      33       2
      24      30      36       2      24      30      39       2      27      24
      30       2      27      24      42       2      33      30      36       1
      33      30      39       1      36      30      39       1      42      48
      51       5      48      54      57       2      48      54      60       2
      48      54      63       2      51      48      54      10      57      54
      60       1      57      54      63       1      60      54      63       1
%FLAG ANGLES_WITHOUT_HYDROGEN
%FORMAT(10I8)
       3      12      15       3       3      12      18       4      12      18
      24       6      15      12      18       7      18      24      30       8
      18      24      42       9      24      42      45       3      24      42
      48       4      30      24      42      11      42      48      54       6
      45      42      48       7
%FLAG DIHEDRALS_INC_HYDROGEN
%FORMAT(10I8)
       0       3      12      15      11       0       3     -12      15       1
       3      12      18      21      12       6       3      12      15      14
       6       3     -12      15       1       9       3      12      15      15
       9       3     -12      15       1      15      12      18      21      18
      15      12     -18      21       3      18      24      30      33      20
      18      24      30      36      21      18      24      30      39      22
      24      42      48      51      24      27      24      30      33      26
      27      24      30      36      27      27      24      30      39      28
      27      24      42      45      29      27      24     -42      45       1
      33      30      24      42      31      36      30      24      42      32
      39      30      24      42      33      45      42      48      51      34
      45      42     -48      51       3      12      24     -18     -21      10
      42      54     -48     -51      10       0       3      12      18      36
       6       3      12      18      37       9       3      12      18      38
      12      18      24      27      39      21      18      24      27      41
      21      18      24      30      42      21      18      24      42      43
      27      24      42      48      44      42      48      54      57      46
      42      48      54      60      47      42      48      54      63      48
      51      48      54      57      49      51      48      54      60      50
      51      48      54      63      51
%FLAG DIHEDRALS_WITHOUT_HYDROGEN
%FORMAT(10I8)
       3      12      18      24      13      12      18      24      30      16
      12      18     -24      30       2      12      18     -24      30       3
      12      18      24      42      17      12      18     -24      42       4
      15      12      18      24      19      18      24      42      48      23
      18      24     -42      48       5      18      24     -42      48       6
      24      42      48      54      25      30      24      42      48      30
      30      24     -42      48       7      30      24     -42      48       8
      45      42      48      54      35       3      18     -12     -15       9
      24      48     -42     -45       9      18      24      42      45      40
      30      24      42      45      45
%FLAG EXCLUDED_ATOMS_LIST
%FORMAT(10I8)
       2       3       4       5       6       7       3       4       5       6
       7       8       9       4       5       6       7       5       6       7
       6       7       8       9      10      11      15       7       8       9
       8       9      10      11      12      13      14      15      16      17
       9      10      11      15      10      11      12      13      14      15
      16      17      18      19      11      12      13      14      15      16
      17      12      13      14      15      16      17      13      14      15
      14      15      15      16      17      18      19      20      21      22
      17      18      19      18      19      20      21      22      19      20
      21      22      20      21      22      21      22      22       0
%FLAG HBOND_ACOEF
%FORMAT(5E16.8)

%FLAG HBOND_BCOEF
%FORMAT(5E16.8)

%FLAG HBCUT
%FORMAT(5E16.8)

%FLAG AMBER_ATOM_TYPE
%FORMAT(20a4)
H1  C1  H1  H1  C2  O1  N1  H2  C1  H3  C1  H1  H1  H1  C2  O1  N1  H2  C1  H3  
H3  H3  
%FLAG TREE_CHAIN_CLASSIFICATION
%FORMAT(20a4)
BLA BLA BLA BLA BLA BLA BLA BLA BLA BLA BLA BLA BLA BLA BLA BLA BLA BLA BLA BLA 
BLA BLA 
%FLAG JOIN_ARRAY
%FORMAT(10I8)
       0       0       0       0       0       0       0       0       0       0
       0       0       0       0       0       0       0       0       0       0
       0       0
%FLAG IROTAT
%FORMAT(10I8)
       0       0       0       0       0       0       0       0       0       0
       0       0       0       0       0       0       0       0       0       0
       0       0
%FLAG RADIUS_SET
%FORMAT(1a80)
0                                                                               
%FLAG RADII
%FORMAT(5E16.8)
  0.00000000E+00  0.00000000E+00  0.00000000E+00  0.00000000E+00  0.00000000E+00
  0.00000000E+00  0.00000000E+00  0.00000000E+00  0.00000000E+00  0.00000000E+00
  0.00000000E+00  0.00000000E+00  0.00000000E+00  0.00000000E+00  0.00000000E+00
  0.00000000E+00  0.00000000E+00  0.00000000E+00  0.00000000E+00  0.00000000E+00
  0.00000000E+00  0.00000000E+00
%FLAG SCREEN
%FORMAT(5E16.8)
  0.00000000E+00  0.00000000E+00  0.00000000E+00  0.00000000E+00  0.00000000E+00
  0.00000000E+00  0.00000000E+00  0.00000000E+00  0.00000000E+00  0.00000000E+00
  0.00000000E+00  0.00000000E+00  0.00000000E+00  0.00000000E+00  0.00000000E+00
  0.00000000E+00  0.00000000E+00  0.00000000E+00  0.00000000E+00  0.00000000E+00
  0.00000000E+00  0.00000000E+00
%FLAG IPOL
%FORMAT(1I8)
       0
